<?xml version="1.0" encoding="UTF-8"?>

<!-- generated on 2024-09-16 15:58:56 by Eclipse SUMO GUI Version 1.18.0
<configuration xmlns:xsi="http://www.w3.org/2001/XMLSchema-instance" xsi:noNamespaceSchemaLocation="http://sumo.dlr.de/xsd/sumoConfiguration.xsd">

    <input>
        <net-file value="/home/julesbompard/Documents/Projets/sumo-experiments/src/sumo_experiments/preset_networks/bologna/acosta/acosta_buslanes.net.xml"/>
        <route-files value="/home/julesbompard/Documents/Projets/sumo-experiments/src/sumo_experiments/preset_networks/bologna/acosta/acosta_NEW.rou.xml,/home/julesbompard/Documents/Projets/sumo-experiments/src/sumo_experiments/preset_networks/bologna/acosta/acosta_busses.rou.xml"/>
        <additional-files value="/home/julesbompard/Documents/Projets/sumo-experiments/src/sumo_experiments/preset_networks/bologna/acosta/acosta_tls.add.xml,/home/julesbompard/Documents/Projets/sumo-experiments/src/sumo_experiments/preset_networks/bologna/acosta/acosta_vtypes.add.xml,/home/julesbompard/Documents/Projets/sumo-experiments/src/sumo_experiments/preset_networks/bologna/acosta/acosta_detectors.add.xml,/home/julesbompard/Documents/Projets/sumo-experiments/src/sumo_experiments/preset_networks/bologna/acosta/acosta_bus_stops.add.xml"/>
    </input>

    <output>
        <tripinfo-output value="/home/julesbompard/Documents/Projets/sumo-experiments/src/sumo_experiments/preset_networks/bologna/acosta/tripinfos.xml"/>
    </output>

    <processing>
        <time-to-teleport value="-1"/>
    </processing>

    <report>
        <log value="/home/julesbompard/Documents/Projets/sumo-experiments/src/sumo_experiments/preset_networks/bologna/acosta/sumo_log.txt"/>
        <no-step-log value="true"/>
    </report>

    <traci_server>
        <remote-port value="34919"/>
    </traci_server>

    <gui_only>
        <gui-settings-file value="/home/julesbompard/Documents/Projets/sumo-experiments/src/sumo_experiments/preset_networks/bologna/acosta/settings.gui.xml"/>
    </gui_only>

</configuration>
-->

<detector xmlns:xsi="http://www.w3.org/2001/XMLSchema-instance" xsi:noNamespaceSchemaLocation="http://sumo.dlr.de/xsd/det_e2_file.xsd">
   <interval begin="0.00" end="1634.00" id="34_1" sampledSeconds="2096.33" nVehEntered="149" nVehLeft="145" nVehSeen="149" meanSpeed="1.73" meanTimeLoss="12.14" meanOccupancy="27.57" maxOccupancy="79.87" meanMaxJamLengthInVehicles="0.95" meanMaxJamLengthInMeters="5.00" maxJamLengthInVehicles="4" maxJamLengthInMeters="19.98" jamLengthInVehiclesSum="1548" jamLengthInMetersSum="8166.25" meanHaltingDuration="27.69" maxHaltingDuration="44.00" haltingDurationSum="1606.00" meanIntervalHaltingDuration="27.69" maxIntervalHaltingDuration="44.00" intervalHaltingDurationSum="1606.00" startedHalts="58.00" meanVehicleNumber="1.38" maxVehicleNumber="4" />
   <interval begin="0.00" end="1634.00" id="34_2" sampledSeconds="2840.76" nVehEntered="173" nVehLeft="169" nVehSeen="173" meanSpeed="1.49" meanTimeLoss="14.16" meanOccupancy="35.36" maxOccupancy="80.18" meanMaxJamLengthInVehicles="1.23" meanMaxJamLengthInMeters="6.19" maxJamLengthInVehicles="4" maxJamLengthInMeters="20.00" jamLengthInVehiclesSum="2002" jamLengthInMetersSum="10120.52" meanHaltingDuration="27.34" maxHaltingDuration="46.00" haltingDurationSum="2078.00" meanIntervalHaltingDuration="27.34" maxIntervalHaltingDuration="46.00" intervalHaltingDurationSum="2078.00" startedHalts="76.00" meanVehicleNumber="1.84" maxVehicleNumber="4" />
   <interval begin="0.00" end="1634.00" id="34_3" sampledSeconds="2138.88" nVehEntered="233" nVehLeft="233" nVehSeen="233" meanSpeed="2.56" meanTimeLoss="7.35" meanOccupancy="28.23" maxOccupancy="79.38" meanMaxJamLengthInVehicles="0.87" meanMaxJamLengthInMeters="4.57" maxJamLengthInVehicles="4" maxJamLengthInMeters="19.38" jamLengthInVehiclesSum="1419" jamLengthInMetersSum="7467.92" meanHaltingDuration="31.39" maxHaltingDuration="47.00" haltingDurationSum="1444.00" meanIntervalHaltingDuration="31.39" maxIntervalHaltingDuration="47.00" intervalHaltingDurationSum="1444.00" startedHalts="52.00" meanVehicleNumber="1.44" maxVehicleNumber="4" />
   <interval begin="0.00" end="1634.00" id="34_4" sampledSeconds="1723.79" nVehEntered="216" nVehLeft="216" nVehSeen="216" meanSpeed="2.84" meanTimeLoss="6.31" meanOccupancy="23.37" maxOccupancy="81.88" meanMaxJamLengthInVehicles="0.70" meanMaxJamLengthInMeters="3.82" maxJamLengthInVehicles="4" maxJamLengthInMeters="19.38" jamLengthInVehiclesSum="1151" jamLengthInMetersSum="6243.99" meanHaltingDuration="27.56" maxHaltingDuration="47.00" haltingDurationSum="1185.00" meanIntervalHaltingDuration="27.56" maxIntervalHaltingDuration="47.00" intervalHaltingDurationSum="1185.00" startedHalts="48.00" meanVehicleNumber="1.17" maxVehicleNumber="4" />
   <interval begin="0.00" end="1634.00" id="34_5" sampledSeconds="1308.78" nVehEntered="102" nVehLeft="102" nVehSeen="102" meanSpeed="1.84" meanTimeLoss="11.17" meanOccupancy="16.69" maxOccupancy="76.88" meanMaxJamLengthInVehicles="0.60" meanMaxJamLengthInMeters="3.10" maxJamLengthInVehicles="4" maxJamLengthInMeters="19.38" jamLengthInVehiclesSum="976" jamLengthInMetersSum="5073.35" meanHaltingDuration="29.70" maxHaltingDuration="46.00" haltingDurationSum="1010.00" meanIntervalHaltingDuration="29.70" maxIntervalHaltingDuration="46.00" intervalHaltingDurationSum="1010.00" startedHalts="34.00" meanVehicleNumber="0.86" maxVehicleNumber="4" />
   <interval begin="0.00" end="1634.00" id="34_6" sampledSeconds="375.63" nVehEntered="178" nVehLeft="178" nVehSeen="178" meanSpeed="11.77" meanTimeLoss="0.31" meanOccupancy="4.50" maxOccupancy="34.07" meanMaxJamLengthInVehicles="0.00" meanMaxJamLengthInMeters="0.00" maxJamLengthInVehicles="0" maxJamLengthInMeters="0.00" jamLengthInVehiclesSum="0" jamLengthInMetersSum="0.00" meanHaltingDuration="0.00" maxHaltingDuration="0.00" haltingDurationSum="0.00" meanIntervalHaltingDuration="0.00" maxIntervalHaltingDuration="0.00" intervalHaltingDurationSum="0.00" startedHalts="0.00" meanVehicleNumber="0.34" maxVehicleNumber="2" />
   <interval begin="0.00" end="1634.00" id="34_7" sampledSeconds="672.58" nVehEntered="306" nVehLeft="306" nVehSeen="306" meanSpeed="11.17" meanTimeLoss="0.38" meanOccupancy="8.01" maxOccupancy="50.94" meanMaxJamLengthInVehicles="0.00" meanMaxJamLengthInMeters="0.00" maxJamLengthInVehicles="0" maxJamLengthInMeters="0.00" jamLengthInVehiclesSum="0" jamLengthInMetersSum="0.00" meanHaltingDuration="0.00" maxHaltingDuration="0.00" haltingDurationSum="0.00" meanIntervalHaltingDuration="0.00" maxIntervalHaltingDuration="0.00" intervalHaltingDurationSum="0.00" startedHalts="0.00" meanVehicleNumber="0.59" maxVehicleNumber="2" />
   <interval begin="0.00" end="1634.00" id="34_8" sampledSeconds="398.71" nVehEntered="220" nVehLeft="220" nVehSeen="220" meanSpeed="12.36" meanTimeLoss="0.17" meanOccupancy="4.82" maxOccupancy="36.54" meanMaxJamLengthInVehicles="0.00" meanMaxJamLengthInMeters="0.00" maxJamLengthInVehicles="0" maxJamLengthInMeters="0.00" jamLengthInVehiclesSum="0" jamLengthInMetersSum="0.00" meanHaltingDuration="0.00" maxHaltingDuration="0.00" haltingDurationSum="0.00" meanIntervalHaltingDuration="0.00" maxIntervalHaltingDuration="0.00" intervalHaltingDurationSum="0.00" startedHalts="0.00" meanVehicleNumber="0.37" maxVehicleNumber="2" />
   <interval begin="0.00" end="1634.00" id="34_9" sampledSeconds="24.48" nVehEntered="27" nVehLeft="27" nVehSeen="27" meanSpeed="13.69" meanTimeLoss="0.07" meanOccupancy="0.11" maxOccupancy="25.00" meanMaxJamLengthInVehicles="0.00" meanMaxJamLengthInMeters="0.00" maxJamLengthInVehicles="0" maxJamLengthInMeters="0.00" jamLengthInVehiclesSum="0" jamLengthInMetersSum="0.00" meanHaltingDuration="0.00" maxHaltingDuration="0.00" haltingDurationSum="0.00" meanIntervalHaltingDuration="0.00" maxIntervalHaltingDuration="0.00" intervalHaltingDurationSum="0.00" startedHalts="0.00" meanVehicleNumber="0.02" maxVehicleNumber="1" />
   <interval begin="0.00" end="1634.00" id="34_10" sampledSeconds="2095.96" nVehEntered="149" nVehLeft="145" nVehSeen="149" meanSpeed="1.73" meanTimeLoss="12.14" meanOccupancy="27.59" maxOccupancy="79.95" meanMaxJamLengthInVehicles="0.95" meanMaxJamLengthInMeters="5.00" maxJamLengthInVehicles="4" maxJamLengthInMeters="19.98" jamLengthInVehiclesSum="1548" jamLengthInMetersSum="8166.25" meanHaltingDuration="27.69" maxHaltingDuration="44.00" haltingDurationSum="1606.00" meanIntervalHaltingDuration="27.69" maxIntervalHaltingDuration="44.00" intervalHaltingDurationSum="1606.00" startedHalts="58.00" meanVehicleNumber="1.38" maxVehicleNumber="4" />
   <interval begin="0.00" end="1634.00" id="34_11" sampledSeconds="2472.96" nVehEntered="153" nVehLeft="150" nVehSeen="153" meanSpeed="11.33" meanTimeLoss="2.99" meanOccupancy="3.92" maxOccupancy="16.11" meanMaxJamLengthInVehicles="0.14" meanMaxJamLengthInMeters="0.78" maxJamLengthInVehicles="5" maxJamLengthInMeters="30.47" jamLengthInVehiclesSum="225" jamLengthInMetersSum="1271.55" meanHaltingDuration="10.70" maxHaltingDuration="28.00" haltingDurationSum="246.00" meanIntervalHaltingDuration="10.70" maxIntervalHaltingDuration="28.00" intervalHaltingDurationSum="246.00" startedHalts="28.00" meanVehicleNumber="1.61" maxVehicleNumber="6" />
   <interval begin="0.00" end="1634.00" id="34_12" sampledSeconds="5903.00" nVehEntered="178" nVehLeft="169" nVehSeen="178" meanSpeed="3.95" meanTimeLoss="23.23" meanOccupancy="13.47" maxOccupancy="54.10" meanMaxJamLengthInVehicles="1.94" meanMaxJamLengthInMeters="11.59" maxJamLengthInVehicles="14" maxJamLengthInMeters="88.53" jamLengthInVehiclesSum="3166" jamLengthInMetersSum="18932.04" meanHaltingDuration="24.45" maxHaltingDuration="46.00" haltingDurationSum="3301.00" meanIntervalHaltingDuration="24.45" maxIntervalHaltingDuration="46.00" intervalHaltingDurationSum="3301.00" startedHalts="135.00" meanVehicleNumber="3.71" maxVehicleNumber="14" />
   <interval begin="0.00" end="1634.00" id="34_13" sampledSeconds="3944.75" nVehEntered="308" nVehLeft="308" nVehSeen="308" meanSpeed="5.63" meanTimeLoss="7.40" meanOccupancy="14.41" maxOccupancy="54.17" meanMaxJamLengthInVehicles="1.01" meanMaxJamLengthInMeters="5.76" maxJamLengthInVehicles="6" maxJamLengthInMeters="37.53" jamLengthInVehiclesSum="1643" jamLengthInMetersSum="9407.57" meanHaltingDuration="28.02" maxHaltingDuration="47.00" haltingDurationSum="1681.00" meanIntervalHaltingDuration="28.02" maxIntervalHaltingDuration="47.00" intervalHaltingDurationSum="1681.00" startedHalts="68.00" meanVehicleNumber="2.57" maxVehicleNumber="9" />
   <interval begin="0.00" end="1634.00" id="34_14" sampledSeconds="2882.75" nVehEntered="301" nVehLeft="301" nVehSeen="301" meanSpeed="5.76" meanTimeLoss="5.52" meanOccupancy="10.45" maxOccupancy="42.20" meanMaxJamLengthInVehicles="0.79" meanMaxJamLengthInMeters="4.48" maxJamLengthInVehicles="6" maxJamLengthInMeters="35.51" jamLengthInVehiclesSum="1287" jamLengthInMetersSum="7322.14" meanHaltingDuration="24.96" maxHaltingDuration="47.00" haltingDurationSum="1323.00" meanIntervalHaltingDuration="24.96" maxIntervalHaltingDuration="47.00" intervalHaltingDurationSum="1323.00" startedHalts="65.00" meanVehicleNumber="1.89" maxVehicleNumber="7" />
   <interval begin="0.00" end="1634.00" id="34_15" sampledSeconds="1586.10" nVehEntered="102" nVehLeft="102" nVehSeen="102" meanSpeed="2.84" meanTimeLoss="12.47" meanOccupancy="5.58" maxOccupancy="36.53" meanMaxJamLengthInVehicles="0.65" meanMaxJamLengthInMeters="3.71" maxJamLengthInVehicles="6" maxJamLengthInMeters="36.67" jamLengthInVehiclesSum="1054" jamLengthInMetersSum="6060.06" meanHaltingDuration="24.42" maxHaltingDuration="46.00" haltingDurationSum="1099.00" meanIntervalHaltingDuration="24.42" maxIntervalHaltingDuration="46.00" intervalHaltingDurationSum="1099.00" startedHalts="45.00" meanVehicleNumber="1.00" maxVehicleNumber="6" />
   <interval begin="0.00" end="1634.00" id="27_1" sampledSeconds="4288.91" nVehEntered="235" nVehLeft="232" nVehSeen="235" meanSpeed="1.31" meanTimeLoss="16.12" meanOccupancy="53.14" maxOccupancy="85.00" meanMaxJamLengthInVehicles="1.95" meanMaxJamLengthInMeters="9.86" maxJamLengthInVehicles="4" maxJamLengthInMeters="20.00" jamLengthInVehiclesSum="3189" jamLengthInMetersSum="16118.05" meanHaltingDuration="34.54" maxHaltingDuration="67.00" haltingDurationSum="3281.00" meanIntervalHaltingDuration="34.54" maxIntervalHaltingDuration="67.00" intervalHaltingDurationSum="3281.00" startedHalts="97.00" meanVehicleNumber="2.77" maxVehicleNumber="4" />
   <interval begin="0.00" end="1634.00" id="27_2" sampledSeconds="3463.64" nVehEntered="296" nVehLeft="296" nVehSeen="296" meanSpeed="2.00" meanTimeLoss="10.00" meanOccupancy="42.84" maxOccupancy="80.08" meanMaxJamLengthInVehicles="1.55" meanMaxJamLengthInMeters="7.81" maxJamLengthInVehicles="4" maxJamLengthInMeters="20.00" jamLengthInVehiclesSum="2537" jamLengthInMetersSum="12759.07" meanHaltingDuration="35.13" maxHaltingDuration="47.00" haltingDurationSum="2600.00" meanIntervalHaltingDuration="35.13" maxIntervalHaltingDuration="47.00" intervalHaltingDurationSum="2600.00" startedHalts="82.00" meanVehicleNumber="2.29" maxVehicleNumber="4" />
   <interval begin="0.00" end="1634.00" id="27_3" sampledSeconds="2995.52" nVehEntered="201" nVehLeft="201" nVehSeen="201" meanSpeed="1.63" meanTimeLoss="13.18" meanOccupancy="36.93" maxOccupancy="80.08" meanMaxJamLengthInVehicles="1.40" meanMaxJamLengthInMeters="6.99" maxJamLengthInVehicles="4" maxJamLengthInMeters="20.00" jamLengthInVehiclesSum="2283" jamLengthInMetersSum="11426.69" meanHaltingDuration="32.71" maxHaltingDuration="44.00" haltingDurationSum="2355.00" meanIntervalHaltingDuration="32.71" maxIntervalHaltingDuration="44.00" intervalHaltingDurationSum="2355.00" startedHalts="72.00" meanVehicleNumber="1.95" maxVehicleNumber="4" />
   <interval begin="0.00" end="1634.00" id="27_4" sampledSeconds="0.00" nVehEntered="0" nVehLeft="0" nVehSeen="0" meanSpeed="-1.00" meanTimeLoss="-1.00" meanOccupancy="0.00" maxOccupancy="0.00" meanMaxJamLengthInVehicles="0.00" meanMaxJamLengthInMeters="0.00" maxJamLengthInVehicles="0" maxJamLengthInMeters="0.00" jamLengthInVehiclesSum="0" jamLengthInMetersSum="0.00" meanHaltingDuration="0.00" maxHaltingDuration="0.00" haltingDurationSum="0.00" meanIntervalHaltingDuration="0.00" maxIntervalHaltingDuration="0.00" intervalHaltingDurationSum="0.00" startedHalts="0.00" meanVehicleNumber="0.00" maxVehicleNumber="0" />
   <interval begin="0.00" end="1634.00" id="27_5" sampledSeconds="216.97" nVehEntered="10" nVehLeft="9" nVehSeen="10" meanSpeed="0.98" meanTimeLoss="20.17" meanOccupancy="12.53" maxOccupancy="100.00" meanMaxJamLengthInVehicles="0.11" meanMaxJamLengthInMeters="1.12" maxJamLengthInVehicles="1" maxJamLengthInMeters="10.38" jamLengthInVehiclesSum="176" jamLengthInMetersSum="1826.55" meanHaltingDuration="30.33" maxHaltingDuration="45.00" haltingDurationSum="182.00" meanIntervalHaltingDuration="30.33" maxIntervalHaltingDuration="45.00" intervalHaltingDurationSum="182.00" startedHalts="6.00" meanVehicleNumber="0.14" maxVehicleNumber="1" />
   <interval begin="0.00" end="1634.00" id="27_6" sampledSeconds="0.00" nVehEntered="0" nVehLeft="0" nVehSeen="0" meanSpeed="-1.00" meanTimeLoss="-1.00" meanOccupancy="0.00" maxOccupancy="0.00" meanMaxJamLengthInVehicles="0.00" meanMaxJamLengthInMeters="0.00" maxJamLengthInVehicles="0" maxJamLengthInMeters="0.00" jamLengthInVehiclesSum="0" jamLengthInMetersSum="0.00" meanHaltingDuration="0.00" maxHaltingDuration="0.00" haltingDurationSum="0.00" meanIntervalHaltingDuration="0.00" maxIntervalHaltingDuration="0.00" intervalHaltingDurationSum="0.00" startedHalts="0.00" meanVehicleNumber="0.00" maxVehicleNumber="0" />
   <interval begin="0.00" end="1634.00" id="27_7" sampledSeconds="2306.00" nVehEntered="215" nVehLeft="215" nVehSeen="215" meanSpeed="2.27" meanTimeLoss="8.91" meanOccupancy="30.62" maxOccupancy="85.00" meanMaxJamLengthInVehicles="1.00" meanMaxJamLengthInMeters="5.29" maxJamLengthInVehicles="4" maxJamLengthInMeters="19.10" jamLengthInVehiclesSum="1626" jamLengthInMetersSum="8636.65" meanHaltingDuration="29.98" maxHaltingDuration="47.00" haltingDurationSum="1679.00" meanIntervalHaltingDuration="29.98" maxIntervalHaltingDuration="47.00" intervalHaltingDurationSum="1679.00" startedHalts="58.00" meanVehicleNumber="1.55" maxVehicleNumber="4" />
   <interval begin="0.00" end="1634.00" id="27_8" sampledSeconds="2178.50" nVehEntered="211" nVehLeft="211" nVehSeen="211" meanSpeed="2.35" meanTimeLoss="8.55" meanOccupancy="27.92" maxOccupancy="75.58" meanMaxJamLengthInVehicles="0.93" meanMaxJamLengthInMeters="4.89" maxJamLengthInVehicles="4" maxJamLengthInMeters="19.62" jamLengthInVehiclesSum="1524" jamLengthInMetersSum="7998.40" meanHaltingDuration="28.09" maxHaltingDuration="47.00" haltingDurationSum="1573.00" meanIntervalHaltingDuration="28.09" maxIntervalHaltingDuration="47.00" intervalHaltingDurationSum="1573.00" startedHalts="57.00" meanVehicleNumber="1.46" maxVehicleNumber="4" />
   <interval begin="0.00" end="1634.00" id="27_9" sampledSeconds="561.35" nVehEntered="18" nVehLeft="18" nVehSeen="18" meanSpeed="0.73" meanTimeLoss="29.55" meanOccupancy="7.96" maxOccupancy="75.00" meanMaxJamLengthInVehicles="0.29" meanMaxJamLengthInMeters="1.47" maxJamLengthInVehicles="3" maxJamLengthInMeters="18.24" jamLengthInVehiclesSum="475" jamLengthInMetersSum="2395.31" meanHaltingDuration="32.67" maxHaltingDuration="61.00" haltingDurationSum="490.00" meanIntervalHaltingDuration="32.67" maxIntervalHaltingDuration="61.00" intervalHaltingDurationSum="490.00" startedHalts="15.00" meanVehicleNumber="0.35" maxVehicleNumber="3" />
   <interval begin="0.00" end="1634.00" id="27_10" sampledSeconds="1879.71" nVehEntered="99" nVehLeft="96" nVehSeen="99" meanSpeed="1.29" meanTimeLoss="16.96" meanOccupancy="24.99" maxOccupancy="74.99" meanMaxJamLengthInVehicles="0.91" meanMaxJamLengthInMeters="4.66" maxJamLengthInVehicles="4" maxJamLengthInMeters="19.01" jamLengthInVehiclesSum="1495" jamLengthInMetersSum="7621.95" meanHaltingDuration="42.53" maxHaltingDuration="68.00" haltingDurationSum="1531.00" meanIntervalHaltingDuration="42.53" maxIntervalHaltingDuration="68.00" intervalHaltingDurationSum="1531.00" startedHalts="36.00" meanVehicleNumber="1.21" maxVehicleNumber="4" />
   <interval begin="0.00" end="1634.00" id="27_11" sampledSeconds="514.65" nVehEntered="23" nVehLeft="22" nVehSeen="23" meanSpeed="1.24" meanTimeLoss="20.37" meanOccupancy="9.65" maxOccupancy="82.89" meanMaxJamLengthInVehicles="0.25" meanMaxJamLengthInMeters="1.67" maxJamLengthInVehicles="2" maxJamLengthInMeters="19.01" jamLengthInVehiclesSum="412" jamLengthInMetersSum="2725.57" meanHaltingDuration="32.69" maxHaltingDuration="68.00" haltingDurationSum="425.00" meanIntervalHaltingDuration="32.69" maxIntervalHaltingDuration="68.00" intervalHaltingDurationSum="425.00" startedHalts="13.00" meanVehicleNumber="0.33" maxVehicleNumber="2" />
   <interval begin="0.00" end="1634.00" id="27_12" sampledSeconds="2962.80" nVehEntered="83" nVehLeft="80" nVehSeen="83" meanSpeed="0.68" meanTimeLoss="33.80" meanOccupancy="38.15" maxOccupancy="77.49" meanMaxJamLengthInVehicles="1.53" meanMaxJamLengthInMeters="7.79" maxJamLengthInVehicles="4" maxJamLengthInMeters="19.81" jamLengthInVehiclesSum="2493" jamLengthInMetersSum="12725.42" meanHaltingDuration="33.72" maxHaltingDuration="76.00" haltingDurationSum="2563.00" meanIntervalHaltingDuration="33.72" maxIntervalHaltingDuration="76.00" intervalHaltingDurationSum="2563.00" startedHalts="78.00" meanVehicleNumber="1.86" maxVehicleNumber="4" />
   <interval begin="0.00" end="1634.00" id="27_13" sampledSeconds="1541.46" nVehEntered="319" nVehLeft="319" nVehSeen="319" meanSpeed="4.91" meanTimeLoss="3.07" meanOccupancy="18.55" maxOccupancy="75.45" meanMaxJamLengthInVehicles="0.38" meanMaxJamLengthInMeters="1.78" maxJamLengthInVehicles="4" maxJamLengthInMeters="19.18" jamLengthInVehiclesSum="625" jamLengthInMetersSum="2903.81" meanHaltingDuration="15.18" maxHaltingDuration="48.00" haltingDurationSum="516.00" meanIntervalHaltingDuration="15.18" maxIntervalHaltingDuration="48.00" intervalHaltingDurationSum="516.00" startedHalts="54.00" meanVehicleNumber="1.13" maxVehicleNumber="4" />
   <interval begin="0.00" end="1634.00" id="27_14" sampledSeconds="918.97" nVehEntered="425" nVehLeft="424" nVehSeen="425" meanSpeed="10.05" meanTimeLoss="0.61" meanOccupancy="11.13" maxOccupancy="75.38" meanMaxJamLengthInVehicles="0.05" meanMaxJamLengthInMeters="0.24" maxJamLengthInVehicles="4" maxJamLengthInMeters="19.11" jamLengthInVehiclesSum="88" jamLengthInMetersSum="387.62" meanHaltingDuration="7.08" maxHaltingDuration="19.00" haltingDurationSum="92.00" meanIntervalHaltingDuration="7.08" maxIntervalHaltingDuration="19.00" intervalHaltingDurationSum="92.00" startedHalts="16.00" meanVehicleNumber="0.79" maxVehicleNumber="4" />
   <interval begin="0.00" end="1634.00" id="27_15" sampledSeconds="162.17" nVehEntered="81" nVehLeft="81" nVehSeen="81" meanSpeed="5.05" meanTimeLoss="1.31" meanOccupancy="1.37" maxOccupancy="69.96" meanMaxJamLengthInVehicles="0.04" meanMaxJamLengthInMeters="0.16" maxJamLengthInVehicles="3" maxJamLengthInMeters="17.00" jamLengthInVehiclesSum="61" jamLengthInMetersSum="256.05" meanHaltingDuration="8.25" maxHaltingDuration="15.00" haltingDurationSum="66.00" meanIntervalHaltingDuration="8.25" maxIntervalHaltingDuration="15.00" intervalHaltingDurationSum="66.00" startedHalts="10.00" meanVehicleNumber="0.12" maxVehicleNumber="3" />
   <interval begin="0.00" end="1634.00" id="27_16" sampledSeconds="392.78" nVehEntered="174" nVehLeft="174" nVehSeen="174" meanSpeed="10.73" meanTimeLoss="0.44" meanOccupancy="4.63" maxOccupancy="60.00" meanMaxJamLengthInVehicles="0.00" meanMaxJamLengthInMeters="0.00" maxJamLengthInVehicles="0" maxJamLengthInMeters="0.00" jamLengthInVehiclesSum="0" jamLengthInMetersSum="0.00" meanHaltingDuration="0.00" maxHaltingDuration="0.00" haltingDurationSum="0.00" meanIntervalHaltingDuration="0.00" maxIntervalHaltingDuration="0.00" intervalHaltingDurationSum="0.00" startedHalts="0.00" meanVehicleNumber="0.34" maxVehicleNumber="2" />
   <interval begin="0.00" end="1634.00" id="27_17" sampledSeconds="447.83" nVehEntered="176" nVehLeft="176" nVehSeen="176" meanSpeed="9.32" meanTimeLoss="0.83" meanOccupancy="5.24" maxOccupancy="56.30" meanMaxJamLengthInVehicles="0.00" meanMaxJamLengthInMeters="0.00" maxJamLengthInVehicles="1" maxJamLengthInMeters="2.19" jamLengthInVehiclesSum="1" jamLengthInMetersSum="2.19" meanHaltingDuration="1.20" maxHaltingDuration="2.00" haltingDurationSum="6.00" meanIntervalHaltingDuration="1.20" maxIntervalHaltingDuration="2.00" intervalHaltingDurationSum="6.00" startedHalts="5.00" meanVehicleNumber="0.37" maxVehicleNumber="3" />
   <interval begin="0.00" end="1634.00" id="27_18" sampledSeconds="220.20" nVehEntered="99" nVehLeft="99" nVehSeen="99" meanSpeed="10.79" meanTimeLoss="0.44" meanOccupancy="2.67" maxOccupancy="47.50" meanMaxJamLengthInVehicles="0.00" meanMaxJamLengthInMeters="0.00" maxJamLengthInVehicles="0" maxJamLengthInMeters="0.00" jamLengthInVehiclesSum="0" jamLengthInMetersSum="0.00" meanHaltingDuration="0.00" maxHaltingDuration="0.00" haltingDurationSum="0.00" meanIntervalHaltingDuration="0.00" maxIntervalHaltingDuration="0.00" intervalHaltingDurationSum="0.00" startedHalts="0.00" meanVehicleNumber="0.19" maxVehicleNumber="3" />
   <interval begin="0.00" end="1634.00" id="27_19" sampledSeconds="483.48" nVehEntered="210" nVehLeft="209" nVehSeen="210" meanSpeed="10.93" meanTimeLoss="0.48" meanOccupancy="6.00" maxOccupancy="60.00" meanMaxJamLengthInVehicles="0.00" meanMaxJamLengthInMeters="0.00" maxJamLengthInVehicles="0" maxJamLengthInMeters="0.00" jamLengthInVehiclesSum="0" jamLengthInMetersSum="0.00" meanHaltingDuration="0.00" maxHaltingDuration="0.00" haltingDurationSum="0.00" meanIntervalHaltingDuration="0.00" maxIntervalHaltingDuration="0.00" intervalHaltingDurationSum="0.00" startedHalts="0.00" meanVehicleNumber="0.42" maxVehicleNumber="2" />
   <interval begin="0.00" end="1634.00" id="27_20" sampledSeconds="9768.99" nVehEntered="323" nVehLeft="315" nVehSeen="323" meanSpeed="2.27" meanTimeLoss="24.92" meanOccupancy="36.12" maxOccupancy="78.09" meanMaxJamLengthInVehicles="3.80" meanMaxJamLengthInMeters="23.00" maxJamLengthInVehicles="13" maxJamLengthInMeters="78.70" jamLengthInVehiclesSum="6256" jamLengthInMetersSum="37822.99" meanHaltingDuration="25.03" maxHaltingDuration="68.00" haltingDurationSum="6459.00" meanIntervalHaltingDuration="25.03" maxIntervalHaltingDuration="68.00" intervalHaltingDurationSum="6459.00" startedHalts="279.00" meanVehicleNumber="6.15" maxVehicleNumber="13" />
   <interval begin="0.00" end="1634.00" id="27_21" sampledSeconds="6986.27" nVehEntered="484" nVehLeft="482" nVehSeen="484" meanSpeed="3.89" meanTimeLoss="10.38" meanOccupancy="25.69" maxOccupancy="74.82" meanMaxJamLengthInVehicles="2.35" meanMaxJamLengthInMeters="13.99" maxJamLengthInVehicles="11" maxJamLengthInMeters="70.02" jamLengthInVehiclesSum="3849" jamLengthInMetersSum="22877.72" meanHaltingDuration="23.06" maxHaltingDuration="47.00" haltingDurationSum="3966.00" meanIntervalHaltingDuration="23.06" maxIntervalHaltingDuration="47.00" intervalHaltingDurationSum="3966.00" startedHalts="201.00" meanVehicleNumber="4.48" maxVehicleNumber="13" />
   <interval begin="0.00" end="1634.00" id="27_22" sampledSeconds="4894.26" nVehEntered="201" nVehLeft="201" nVehSeen="201" meanSpeed="2.09" meanTimeLoss="20.76" meanOccupancy="17.54" maxOccupancy="63.51" meanMaxJamLengthInVehicles="2.06" meanMaxJamLengthInMeters="12.11" maxJamLengthInVehicles="11" maxJamLengthInMeters="63.64" jamLengthInVehiclesSum="3371" jamLengthInMetersSum="19792.76" meanHaltingDuration="22.89" maxHaltingDuration="44.00" haltingDurationSum="3525.00" meanIntervalHaltingDuration="22.89" maxIntervalHaltingDuration="44.00" intervalHaltingDurationSum="3525.00" startedHalts="154.00" meanVehicleNumber="3.06" maxVehicleNumber="11" />
   <interval begin="0.00" end="1634.00" id="27_23" sampledSeconds="0.00" nVehEntered="0" nVehLeft="0" nVehSeen="0" meanSpeed="-1.00" meanTimeLoss="-1.00" meanOccupancy="0.00" maxOccupancy="0.00" meanMaxJamLengthInVehicles="0.00" meanMaxJamLengthInMeters="0.00" maxJamLengthInVehicles="0" maxJamLengthInMeters="0.00" jamLengthInVehiclesSum="0" jamLengthInMetersSum="0.00" meanHaltingDuration="0.00" maxHaltingDuration="0.00" haltingDurationSum="0.00" meanIntervalHaltingDuration="0.00" maxIntervalHaltingDuration="0.00" intervalHaltingDurationSum="0.00" startedHalts="0.00" meanVehicleNumber="0.00" maxVehicleNumber="0" />
   <interval begin="0.00" end="1634.00" id="27_24" sampledSeconds="216.97" nVehEntered="10" nVehLeft="9" nVehSeen="10" meanSpeed="0.98" meanTimeLoss="20.17" meanOccupancy="12.53" maxOccupancy="100.00" meanMaxJamLengthInVehicles="0.11" meanMaxJamLengthInMeters="1.12" maxJamLengthInVehicles="1" maxJamLengthInMeters="10.38" jamLengthInVehiclesSum="176" jamLengthInMetersSum="1826.55" meanHaltingDuration="30.33" maxHaltingDuration="45.00" haltingDurationSum="182.00" meanIntervalHaltingDuration="30.33" maxIntervalHaltingDuration="45.00" intervalHaltingDurationSum="182.00" startedHalts="6.00" meanVehicleNumber="0.14" maxVehicleNumber="1" />
   <interval begin="0.00" end="1634.00" id="27_25" sampledSeconds="0.00" nVehEntered="0" nVehLeft="0" nVehSeen="0" meanSpeed="-1.00" meanTimeLoss="-1.00" meanOccupancy="0.00" maxOccupancy="0.00" meanMaxJamLengthInVehicles="0.00" meanMaxJamLengthInMeters="0.00" maxJamLengthInVehicles="0" maxJamLengthInMeters="0.00" jamLengthInVehiclesSum="0" jamLengthInMetersSum="0.00" meanHaltingDuration="0.00" maxHaltingDuration="0.00" haltingDurationSum="0.00" meanIntervalHaltingDuration="0.00" maxIntervalHaltingDuration="0.00" intervalHaltingDurationSum="0.00" startedHalts="0.00" meanVehicleNumber="0.00" maxVehicleNumber="0" />
   <interval begin="0.00" end="1634.00" id="27_26" sampledSeconds="497.39" nVehEntered="10" nVehLeft="10" nVehSeen="10" meanSpeed="3.38" meanTimeLoss="37.63" meanOccupancy="2.22" maxOccupancy="15.37" meanMaxJamLengthInVehicles="0.17" meanMaxJamLengthInMeters="2.09" maxJamLengthInVehicles="2" maxJamLengthInMeters="27.05" jamLengthInVehiclesSum="276" jamLengthInMetersSum="3418.61" meanHaltingDuration="20.71" maxHaltingDuration="24.00" haltingDurationSum="290.00" meanIntervalHaltingDuration="20.71" maxIntervalHaltingDuration="24.00" intervalHaltingDurationSum="290.00" startedHalts="14.00" meanVehicleNumber="0.31" maxVehicleNumber="2" />
   <interval begin="0.00" end="1634.00" id="27_27" sampledSeconds="0.00" nVehEntered="0" nVehLeft="0" nVehSeen="0" meanSpeed="-1.00" meanTimeLoss="-1.00" meanOccupancy="0.00" maxOccupancy="0.00" meanMaxJamLengthInVehicles="0.00" meanMaxJamLengthInMeters="0.00" maxJamLengthInVehicles="0" maxJamLengthInMeters="0.00" jamLengthInVehiclesSum="0" jamLengthInMetersSum="0.00" meanHaltingDuration="0.00" maxHaltingDuration="0.00" haltingDurationSum="0.00" meanIntervalHaltingDuration="0.00" maxIntervalHaltingDuration="0.00" intervalHaltingDurationSum="0.00" startedHalts="0.00" meanVehicleNumber="0.00" maxVehicleNumber="0" />
   <interval begin="0.00" end="1634.00" id="27_28" sampledSeconds="4400.75" nVehEntered="223" nVehLeft="223" nVehSeen="223" meanSpeed="3.01" meanTimeLoss="15.31" meanOccupancy="22.01" maxOccupancy="78.97" meanMaxJamLengthInVehicles="1.69" meanMaxJamLengthInMeters="9.83" maxJamLengthInVehicles="10" maxJamLengthInMeters="57.10" jamLengthInVehiclesSum="2769" jamLengthInMetersSum="16057.15" meanHaltingDuration="26.61" maxHaltingDuration="47.00" haltingDurationSum="2874.00" meanIntervalHaltingDuration="26.61" maxIntervalHaltingDuration="47.00" intervalHaltingDurationSum="2874.00" startedHalts="110.00" meanVehicleNumber="2.83" maxVehicleNumber="10" />