<?xml version="1.0" encoding="UTF-8"?>

<!-- generated on 2024-08-28 14:34:44 by Eclipse SUMO sumo Version 1.18.0
<configuration xmlns:xsi="http://www.w3.org/2001/XMLSchema-instance" xsi:noNamespaceSchemaLocation="http://sumo.dlr.de/xsd/sumoConfiguration.xsd">

    <input>
        <net-file value="/home/julesbompard/Documents/Projets/sumo-experiments/src/sumo_experiments/preset_networks/bologna/acosta/acosta_buslanes.net.xml"/>
        <route-files value="/home/julesbompard/Documents/Projets/sumo-experiments/src/sumo_experiments/preset_networks/bologna/acosta/acosta_NEW.rou.xml,/home/julesbompard/Documents/Projets/sumo-experiments/src/sumo_experiments/preset_networks/bologna/acosta/acosta_busses.rou.xml"/>
        <additional-files value="/home/julesbompard/Documents/Projets/sumo-experiments/src/sumo_experiments/preset_networks/bologna/acosta/acosta_tls.add.xml,/home/julesbompard/Documents/Projets/sumo-experiments/src/sumo_experiments/preset_networks/bologna/acosta/acosta_vtypes.add.xml,/home/julesbompard/Documents/Projets/sumo-experiments/src/sumo_experiments/preset_networks/bologna/acosta/acosta_detectors.add.xml,/home/julesbompard/Documents/Projets/sumo-experiments/src/sumo_experiments/preset_networks/bologna/acosta/acosta_bus_stops.add.xml"/>
    </input>

    <output>
        <tripinfo-output value="/home/julesbompard/Documents/Projets/sumo-experiments/src/sumo_experiments/preset_networks/bologna/acosta/tripinfos.xml"/>
    </output>

    <processing>
        <time-to-teleport value="-1"/>
    </processing>

    <report>
        <log value="/home/julesbompard/Documents/Projets/sumo-experiments/src/sumo_experiments/preset_networks/bologna/acosta/sumo_log.txt"/>
        <no-step-log value="true"/>
    </report>

    <traci_server>
        <remote-port value="53623"/>
    </traci_server>

    <gui_only>
        <gui-settings-file value="/home/julesbompard/Documents/Projets/sumo-experiments/src/sumo_experiments/preset_networks/bologna/acosta/settings.gui.xml"/>
    </gui_only>

</configuration>
-->

<detector xmlns:xsi="http://www.w3.org/2001/XMLSchema-instance" xsi:noNamespaceSchemaLocation="http://sumo.dlr.de/xsd/det_e2_file.xsd">
   <interval begin="0.00" end="3600.00" id="34_1" sampledSeconds="3687.81" nVehEntered="266" nVehLeft="262" nVehSeen="266" meanSpeed="1.78" meanTimeLoss="11.93" meanOccupancy="22.39" maxOccupancy="82.38" meanMaxJamLengthInVehicles="0.74" meanMaxJamLengthInMeters="3.87" maxJamLengthInVehicles="4" maxJamLengthInMeters="19.98" jamLengthInVehiclesSum="2678" jamLengthInMetersSum="13941.10" meanHaltingDuration="24.91" maxHaltingDuration="43.00" haltingDurationSum="2790.00" meanIntervalHaltingDuration="24.91" maxIntervalHaltingDuration="43.00" intervalHaltingDurationSum="2790.00" startedHalts="112.00" meanVehicleNumber="1.10" maxVehicleNumber="4" />
   <interval begin="0.00" end="3600.00" id="34_2" sampledSeconds="4837.43" nVehEntered="285" nVehLeft="281" nVehSeen="285" meanSpeed="1.45" meanTimeLoss="14.70" meanOccupancy="27.81" maxOccupancy="82.68" meanMaxJamLengthInVehicles="0.96" meanMaxJamLengthInMeters="4.93" maxJamLengthInVehicles="4" maxJamLengthInMeters="20.00" jamLengthInVehiclesSum="3465" jamLengthInMetersSum="17748.55" meanHaltingDuration="26.11" maxHaltingDuration="45.00" haltingDurationSum="3603.00" meanIntervalHaltingDuration="26.11" maxIntervalHaltingDuration="45.00" intervalHaltingDurationSum="3603.00" startedHalts="138.00" meanVehicleNumber="1.42" maxVehicleNumber="4" />
   <interval begin="0.00" end="3600.00" id="34_3" sampledSeconds="3864.80" nVehEntered="490" nVehLeft="490" nVehSeen="490" meanSpeed="2.85" meanTimeLoss="6.16" meanOccupancy="24.17" maxOccupancy="84.34" meanMaxJamLengthInVehicles="0.67" meanMaxJamLengthInMeters="3.63" maxJamLengthInVehicles="4" maxJamLengthInMeters="20.00" jamLengthInVehiclesSum="2408" jamLengthInMetersSum="13068.27" meanHaltingDuration="24.80" maxHaltingDuration="48.00" haltingDurationSum="2455.00" meanIntervalHaltingDuration="24.80" maxIntervalHaltingDuration="48.00" intervalHaltingDurationSum="2455.00" startedHalts="117.00" meanVehicleNumber="1.20" maxVehicleNumber="4" />
   <interval begin="0.00" end="3600.00" id="34_4" sampledSeconds="3041.39" nVehEntered="452" nVehLeft="452" nVehSeen="452" meanSpeed="3.16" meanTimeLoss="5.19" meanOccupancy="18.34" maxOccupancy="76.88" meanMaxJamLengthInVehicles="0.53" meanMaxJamLengthInMeters="2.73" maxJamLengthInVehicles="4" maxJamLengthInMeters="19.38" jamLengthInVehiclesSum="1903" jamLengthInMetersSum="9814.58" meanHaltingDuration="21.85" maxHaltingDuration="47.00" haltingDurationSum="1923.00" meanIntervalHaltingDuration="21.85" maxIntervalHaltingDuration="47.00" intervalHaltingDurationSum="1923.00" startedHalts="108.00" meanVehicleNumber="0.95" maxVehicleNumber="4" />
   <interval begin="0.00" end="3600.00" id="34_5" sampledSeconds="1906.75" nVehEntered="179" nVehLeft="179" nVehSeen="179" meanSpeed="2.08" meanTimeLoss="9.12" meanOccupancy="11.54" maxOccupancy="76.84" meanMaxJamLengthInVehicles="0.37" meanMaxJamLengthInMeters="1.94" maxJamLengthInVehicles="4" maxJamLengthInMeters="19.38" jamLengthInVehiclesSum="1323" jamLengthInMetersSum="6997.37" meanHaltingDuration="18.41" maxHaltingDuration="46.00" haltingDurationSum="1399.00" meanIntervalHaltingDuration="18.41" maxIntervalHaltingDuration="46.00" intervalHaltingDurationSum="1399.00" startedHalts="76.00" meanVehicleNumber="0.57" maxVehicleNumber="4" />
   <interval begin="0.00" end="3600.00" id="34_6" sampledSeconds="605.84" nVehEntered="289" nVehLeft="288" nVehSeen="289" meanSpeed="11.79" meanTimeLoss="0.31" meanOccupancy="3.19" maxOccupancy="35.57" meanMaxJamLengthInVehicles="0.00" meanMaxJamLengthInMeters="0.00" maxJamLengthInVehicles="0" maxJamLengthInMeters="0.00" jamLengthInVehiclesSum="0" jamLengthInMetersSum="0.00" meanHaltingDuration="0.00" maxHaltingDuration="0.00" haltingDurationSum="0.00" meanIntervalHaltingDuration="0.00" maxIntervalHaltingDuration="0.00" intervalHaltingDurationSum="0.00" startedHalts="0.00" meanVehicleNumber="0.25" maxVehicleNumber="2" />
   <interval begin="0.00" end="3600.00" id="34_7" sampledSeconds="1319.89" nVehEntered="604" nVehLeft="604" nVehSeen="604" meanSpeed="11.28" meanTimeLoss="0.38" meanOccupancy="7.13" maxOccupancy="56.93" meanMaxJamLengthInVehicles="0.00" meanMaxJamLengthInMeters="0.00" maxJamLengthInVehicles="0" maxJamLengthInMeters="0.00" jamLengthInVehiclesSum="0" jamLengthInMetersSum="0.00" meanHaltingDuration="0.00" maxHaltingDuration="0.00" haltingDurationSum="0.00" meanIntervalHaltingDuration="0.00" maxIntervalHaltingDuration="0.00" intervalHaltingDurationSum="0.00" startedHalts="0.00" meanVehicleNumber="0.52" maxVehicleNumber="3" />
   <interval begin="0.00" end="3600.00" id="34_8" sampledSeconds="735.20" nVehEntered="402" nVehLeft="402" nVehSeen="402" meanSpeed="12.68" meanTimeLoss="0.17" meanOccupancy="3.97" maxOccupancy="36.32" meanMaxJamLengthInVehicles="0.00" meanMaxJamLengthInMeters="0.00" maxJamLengthInVehicles="0" maxJamLengthInMeters="0.00" jamLengthInVehiclesSum="0" jamLengthInMetersSum="0.00" meanHaltingDuration="0.00" maxHaltingDuration="0.00" haltingDurationSum="0.00" meanIntervalHaltingDuration="0.00" maxIntervalHaltingDuration="0.00" intervalHaltingDurationSum="0.00" startedHalts="0.00" meanVehicleNumber="0.31" maxVehicleNumber="2" />
   <interval begin="0.00" end="3600.00" id="34_9" sampledSeconds="30.26" nVehEntered="43" nVehLeft="43" nVehSeen="43" meanSpeed="13.85" meanTimeLoss="0.05" meanOccupancy="0.06" maxOccupancy="25.00" meanMaxJamLengthInVehicles="0.00" meanMaxJamLengthInMeters="0.00" maxJamLengthInVehicles="0" maxJamLengthInMeters="0.00" jamLengthInVehiclesSum="0" jamLengthInMetersSum="0.00" meanHaltingDuration="0.00" maxHaltingDuration="0.00" haltingDurationSum="0.00" meanIntervalHaltingDuration="0.00" maxIntervalHaltingDuration="0.00" intervalHaltingDurationSum="0.00" startedHalts="0.00" meanVehicleNumber="0.02" maxVehicleNumber="1" />
   <interval begin="0.00" end="3600.00" id="34_10" sampledSeconds="3687.12" nVehEntered="266" nVehLeft="262" nVehSeen="266" meanSpeed="1.77" meanTimeLoss="11.92" meanOccupancy="22.41" maxOccupancy="82.46" meanMaxJamLengthInVehicles="0.74" meanMaxJamLengthInMeters="3.87" maxJamLengthInVehicles="4" maxJamLengthInMeters="19.98" jamLengthInVehiclesSum="2678" jamLengthInMetersSum="13941.06" meanHaltingDuration="24.91" maxHaltingDuration="43.00" haltingDurationSum="2790.00" meanIntervalHaltingDuration="24.91" maxIntervalHaltingDuration="43.00" intervalHaltingDurationSum="2790.00" startedHalts="112.00" meanVehicleNumber="1.10" maxVehicleNumber="4" />
   <interval begin="0.00" end="3600.00" id="34_11" sampledSeconds="3932.36" nVehEntered="268" nVehLeft="266" nVehSeen="268" meanSpeed="12.52" meanTimeLoss="1.46" meanOccupancy="2.82" maxOccupancy="11.11" meanMaxJamLengthInVehicles="0.03" meanMaxJamLengthInMeters="0.14" maxJamLengthInVehicles="2" maxJamLengthInMeters="12.43" jamLengthInVehiclesSum="111" jamLengthInMetersSum="495.11" meanHaltingDuration="8.92" maxHaltingDuration="19.00" haltingDurationSum="107.00" meanIntervalHaltingDuration="8.92" maxIntervalHaltingDuration="19.00" intervalHaltingDurationSum="107.00" startedHalts="18.00" meanVehicleNumber="1.17" maxVehicleNumber="5" />
   <interval begin="0.00" end="3600.00" id="34_12" sampledSeconds="8645.37" nVehEntered="289" nVehLeft="281" nVehSeen="289" meanSpeed="4.39" meanTimeLoss="19.98" meanOccupancy="8.84" maxOccupancy="43.91" meanMaxJamLengthInVehicles="1.22" meanMaxJamLengthInMeters="7.08" maxJamLengthInVehicles="10" maxJamLengthInMeters="59.64" jamLengthInVehiclesSum="4384" jamLengthInMetersSum="25489.41" meanHaltingDuration="22.70" maxHaltingDuration="45.00" haltingDurationSum="4586.00" meanIntervalHaltingDuration="22.70" maxIntervalHaltingDuration="45.00" intervalHaltingDurationSum="4586.00" startedHalts="202.00" meanVehicleNumber="2.48" maxVehicleNumber="12" />
   <interval begin="0.00" end="3600.00" id="34_13" sampledSeconds="7034.27" nVehEntered="615" nVehLeft="615" nVehSeen="615" meanSpeed="6.40" meanTimeLoss="6.00" meanOccupancy="11.75" maxOccupancy="47.24" meanMaxJamLengthInVehicles="0.71" meanMaxJamLengthInMeters="4.01" maxJamLengthInVehicles="7" maxJamLengthInMeters="40.04" jamLengthInVehiclesSum="2547" jamLengthInMetersSum="14427.20" meanHaltingDuration="24.50" maxHaltingDuration="48.00" haltingDurationSum="2597.00" meanIntervalHaltingDuration="24.50" maxIntervalHaltingDuration="48.00" intervalHaltingDurationSum="2597.00" startedHalts="129.00" meanVehicleNumber="2.10" maxVehicleNumber="8" />
   <interval begin="0.00" end="3600.00" id="34_14" sampledSeconds="4857.61" nVehEntered="575" nVehLeft="575" nVehSeen="575" meanSpeed="6.48" meanTimeLoss="4.52" meanOccupancy="7.86" maxOccupancy="35.27" meanMaxJamLengthInVehicles="0.55" meanMaxJamLengthInMeters="2.98" maxJamLengthInVehicles="6" maxJamLengthInMeters="35.51" jamLengthInVehiclesSum="1970" jamLengthInMetersSum="10720.59" meanHaltingDuration="21.55" maxHaltingDuration="47.00" haltingDurationSum="1983.00" meanIntervalHaltingDuration="21.55" maxIntervalHaltingDuration="47.00" intervalHaltingDurationSum="1983.00" startedHalts="116.00" meanVehicleNumber="1.46" maxVehicleNumber="6" />
   <interval begin="0.00" end="3600.00" id="34_15" sampledSeconds="2177.46" nVehEntered="179" nVehLeft="179" nVehSeen="179" meanSpeed="3.21" meanTimeLoss="9.50" meanOccupancy="3.42" maxOccupancy="30.86" meanMaxJamLengthInVehicles="0.38" meanMaxJamLengthInMeters="2.10" maxJamLengthInVehicles="5" maxJamLengthInMeters="30.11" jamLengthInVehiclesSum="1364" jamLengthInMetersSum="7542.59" meanHaltingDuration="18.27" maxHaltingDuration="46.00" haltingDurationSum="1443.00" meanIntervalHaltingDuration="18.27" maxIntervalHaltingDuration="46.00" intervalHaltingDurationSum="1443.00" startedHalts="79.00" meanVehicleNumber="0.63" maxVehicleNumber="5" />
   <interval begin="0.00" end="3600.00" id="27_1" sampledSeconds="8641.26" nVehEntered="461" nVehLeft="461" nVehSeen="461" meanSpeed="1.26" meanTimeLoss="16.64" meanOccupancy="49.47" maxOccupancy="85.00" meanMaxJamLengthInVehicles="1.81" meanMaxJamLengthInMeters="9.30" maxJamLengthInVehicles="4" maxJamLengthInMeters="20.00" jamLengthInVehiclesSum="6519" jamLengthInMetersSum="33486.08" meanHaltingDuration="32.34" maxHaltingDuration="70.00" haltingDurationSum="6694.00" meanIntervalHaltingDuration="32.34" maxIntervalHaltingDuration="70.00" intervalHaltingDurationSum="6694.00" startedHalts="217.00" meanVehicleNumber="2.53" maxVehicleNumber="4" />
   <interval begin="0.00" end="3600.00" id="27_2" sampledSeconds="6599.95" nVehEntered="546" nVehLeft="546" nVehSeen="546" meanSpeed="1.83" meanTimeLoss="10.49" meanOccupancy="37.78" maxOccupancy="82.58" meanMaxJamLengthInVehicles="1.36" meanMaxJamLengthInMeters="6.93" maxJamLengthInVehicles="4" maxJamLengthInMeters="20.00" jamLengthInVehiclesSum="4889" jamLengthInMetersSum="24930.80" meanHaltingDuration="31.31" maxHaltingDuration="47.00" haltingDurationSum="4979.00" meanIntervalHaltingDuration="31.31" maxIntervalHaltingDuration="47.00" intervalHaltingDurationSum="4979.00" startedHalts="196.00" meanVehicleNumber="1.97" maxVehicleNumber="4" />
   <interval begin="0.00" end="3600.00" id="27_3" sampledSeconds="5360.76" nVehEntered="309" nVehLeft="309" nVehSeen="309" meanSpeed="1.37" meanTimeLoss="15.65" meanOccupancy="30.92" maxOccupancy="80.08" meanMaxJamLengthInVehicles="1.14" meanMaxJamLengthInMeters="5.81" maxJamLengthInVehicles="4" maxJamLengthInMeters="20.00" jamLengthInVehiclesSum="4101" jamLengthInMetersSum="20927.57" meanHaltingDuration="26.95" maxHaltingDuration="47.00" haltingDurationSum="4259.00" meanIntervalHaltingDuration="26.95" maxIntervalHaltingDuration="47.00" intervalHaltingDurationSum="4259.00" startedHalts="158.00" meanVehicleNumber="1.57" maxVehicleNumber="4" />
   <interval begin="0.00" end="3600.00" id="27_4" sampledSeconds="0.00" nVehEntered="0" nVehLeft="0" nVehSeen="0" meanSpeed="-1.00" meanTimeLoss="-1.00" meanOccupancy="0.00" maxOccupancy="0.00" meanMaxJamLengthInVehicles="0.00" meanMaxJamLengthInMeters="0.00" maxJamLengthInVehicles="0" maxJamLengthInMeters="0.00" jamLengthInVehiclesSum="0" jamLengthInMetersSum="0.00" meanHaltingDuration="0.00" maxHaltingDuration="0.00" haltingDurationSum="0.00" meanIntervalHaltingDuration="0.00" maxIntervalHaltingDuration="0.00" intervalHaltingDurationSum="0.00" startedHalts="0.00" meanVehicleNumber="0.00" maxVehicleNumber="0" />
   <interval begin="0.00" end="3600.00" id="27_5" sampledSeconds="553.90" nVehEntered="24" nVehLeft="23" nVehSeen="24" meanSpeed="0.95" meanTimeLoss="21.50" meanOccupancy="14.50" maxOccupancy="100.00" meanMaxJamLengthInVehicles="0.13" meanMaxJamLengthInMeters="1.31" maxJamLengthInVehicles="1" maxJamLengthInMeters="10.38" jamLengthInVehiclesSum="453" jamLengthInMetersSum="4700.72" meanHaltingDuration="33.36" maxHaltingDuration="65.00" haltingDurationSum="467.00" meanIntervalHaltingDuration="33.36" maxIntervalHaltingDuration="65.00" intervalHaltingDurationSum="467.00" startedHalts="14.00" meanVehicleNumber="0.16" maxVehicleNumber="2" />
   <interval begin="0.00" end="3600.00" id="27_6" sampledSeconds="0.00" nVehEntered="0" nVehLeft="0" nVehSeen="0" meanSpeed="-1.00" meanTimeLoss="-1.00" meanOccupancy="0.00" maxOccupancy="0.00" meanMaxJamLengthInVehicles="0.00" meanMaxJamLengthInMeters="0.00" maxJamLengthInVehicles="0" maxJamLengthInMeters="0.00" jamLengthInVehiclesSum="0" jamLengthInMetersSum="0.00" meanHaltingDuration="0.00" maxHaltingDuration="0.00" haltingDurationSum="0.00" meanIntervalHaltingDuration="0.00" maxIntervalHaltingDuration="0.00" intervalHaltingDurationSum="0.00" startedHalts="0.00" meanVehicleNumber="0.00" maxVehicleNumber="0" />
   <interval begin="0.00" end="3600.00" id="27_7" sampledSeconds="4718.80" nVehEntered="416" nVehLeft="416" nVehSeen="416" meanSpeed="2.14" meanTimeLoss="9.56" meanOccupancy="28.69" maxOccupancy="85.00" meanMaxJamLengthInVehicles="0.93" meanMaxJamLengthInMeters="4.95" maxJamLengthInVehicles="4" maxJamLengthInMeters="19.10" jamLengthInVehiclesSum="3359" jamLengthInMetersSum="17820.98" meanHaltingDuration="30.16" maxHaltingDuration="48.00" haltingDurationSum="3469.00" meanIntervalHaltingDuration="30.16" maxIntervalHaltingDuration="48.00" intervalHaltingDurationSum="3469.00" startedHalts="117.00" meanVehicleNumber="1.43" maxVehicleNumber="4" />
   <interval begin="0.00" end="3600.00" id="27_8" sampledSeconds="4505.01" nVehEntered="395" nVehLeft="395" nVehSeen="395" meanSpeed="2.15" meanTimeLoss="9.66" meanOccupancy="25.63" maxOccupancy="79.97" meanMaxJamLengthInVehicles="0.90" meanMaxJamLengthInMeters="4.52" maxJamLengthInVehicles="4" maxJamLengthInMeters="20.00" jamLengthInVehiclesSum="3236" jamLengthInMetersSum="16257.35" meanHaltingDuration="29.10" maxHaltingDuration="48.00" haltingDurationSum="3347.00" meanIntervalHaltingDuration="29.10" maxIntervalHaltingDuration="48.00" intervalHaltingDurationSum="3347.00" startedHalts="116.00" meanVehicleNumber="1.36" maxVehicleNumber="4" />
   <interval begin="0.00" end="3600.00" id="27_9" sampledSeconds="1162.38" nVehEntered="39" nVehLeft="38" nVehSeen="39" meanSpeed="0.82" meanTimeLoss="28.05" meanOccupancy="7.37" maxOccupancy="75.00" meanMaxJamLengthInVehicles="0.27" meanMaxJamLengthInMeters="1.38" maxJamLengthInVehicles="4" maxJamLengthInMeters="19.10" jamLengthInVehiclesSum="979" jamLengthInMetersSum="4965.06" meanHaltingDuration="34.72" maxHaltingDuration="63.00" haltingDurationSum="1007.00" meanIntervalHaltingDuration="34.72" maxIntervalHaltingDuration="63.00" intervalHaltingDurationSum="1007.00" startedHalts="30.00" meanVehicleNumber="0.33" maxVehicleNumber="4" />
   <interval begin="0.00" end="3600.00" id="27_10" sampledSeconds="6582.41" nVehEntered="198" nVehLeft="194" nVehSeen="198" meanSpeed="0.74" meanTimeLoss="31.19" meanOccupancy="38.93" maxOccupancy="76.80" meanMaxJamLengthInVehicles="1.58" meanMaxJamLengthInMeters="8.19" maxJamLengthInVehicles="4" maxJamLengthInMeters="19.01" jamLengthInVehiclesSum="5686" jamLengthInMetersSum="29474.96" meanHaltingDuration="48.78" maxHaltingDuration="67.00" haltingDurationSum="5805.00" meanIntervalHaltingDuration="48.78" maxIntervalHaltingDuration="67.00" intervalHaltingDurationSum="5805.00" startedHalts="119.00" meanVehicleNumber="1.89" maxVehicleNumber="4" />
   <interval begin="0.00" end="3600.00" id="27_11" sampledSeconds="1433.78" nVehEntered="50" nVehLeft="50" nVehSeen="50" meanSpeed="0.99" meanTimeLoss="26.60" meanOccupancy="15.08" maxOccupancy="82.46" meanMaxJamLengthInVehicles="0.33" meanMaxJamLengthInMeters="2.73" maxJamLengthInVehicles="2" maxJamLengthInMeters="19.01" jamLengthInVehiclesSum="1191" jamLengthInMetersSum="9819.55" meanHaltingDuration="38.22" maxHaltingDuration="63.00" haltingDurationSum="1223.00" meanIntervalHaltingDuration="38.22" maxIntervalHaltingDuration="63.00" intervalHaltingDurationSum="1223.00" startedHalts="32.00" meanVehicleNumber="0.41" maxVehicleNumber="3" />
   <interval begin="0.00" end="3600.00" id="27_12" sampledSeconds="5690.69" nVehEntered="167" nVehLeft="163" nVehSeen="167" meanSpeed="0.72" meanTimeLoss="32.17" meanOccupancy="34.29" maxOccupancy="77.49" meanMaxJamLengthInVehicles="1.32" meanMaxJamLengthInMeters="6.79" maxJamLengthInVehicles="4" maxJamLengthInMeters="19.11" jamLengthInVehiclesSum="4770" jamLengthInMetersSum="24445.82" meanHaltingDuration="34.37" maxHaltingDuration="77.00" haltingDurationSum="4880.00" meanIntervalHaltingDuration="34.37" maxIntervalHaltingDuration="77.00" intervalHaltingDurationSum="4880.00" startedHalts="153.00" meanVehicleNumber="1.62" maxVehicleNumber="4" />
   <interval begin="0.00" end="3600.00" id="27_13" sampledSeconds="1903.28" nVehEntered="688" nVehLeft="688" nVehSeen="688" meanSpeed="8.51" meanTimeLoss="1.01" meanOccupancy="10.49" maxOccupancy="72.50" meanMaxJamLengthInVehicles="0.11" meanMaxJamLengthInMeters="0.50" maxJamLengthInVehicles="3" maxJamLengthInMeters="17.91" jamLengthInVehiclesSum="396" jamLengthInMetersSum="1799.55" meanHaltingDuration="16.27" maxHaltingDuration="63.00" haltingDurationSum="358.00" meanIntervalHaltingDuration="16.27" maxIntervalHaltingDuration="63.00" intervalHaltingDurationSum="358.00" startedHalts="38.00" meanVehicleNumber="0.71" maxVehicleNumber="3" />
   <interval begin="0.00" end="3600.00" id="27_14" sampledSeconds="1085.84" nVehEntered="611" nVehLeft="611" nVehSeen="611" meanSpeed="12.56" meanTimeLoss="0.20" meanOccupancy="5.77" maxOccupancy="50.00" meanMaxJamLengthInVehicles="0.00" meanMaxJamLengthInMeters="0.00" maxJamLengthInVehicles="2" maxJamLengthInMeters="8.08" jamLengthInVehiclesSum="5" jamLengthInMetersSum="16.57" meanHaltingDuration="3.50" maxHaltingDuration="4.00" haltingDurationSum="7.00" meanIntervalHaltingDuration="3.50" maxIntervalHaltingDuration="4.00" intervalHaltingDurationSum="7.00" startedHalts="3.00" meanVehicleNumber="0.45" maxVehicleNumber="3" />
   <interval begin="0.00" end="3600.00" id="27_15" sampledSeconds="55.88" nVehEntered="61" nVehLeft="61" nVehSeen="61" meanSpeed="8.43" meanTimeLoss="0.39" meanOccupancy="0.12" maxOccupancy="31.94" meanMaxJamLengthInVehicles="0.00" meanMaxJamLengthInMeters="0.01" maxJamLengthInVehicles="2" maxJamLengthInMeters="7.61" jamLengthInVehiclesSum="9" jamLengthInMetersSum="22.99" meanHaltingDuration="5.00" maxHaltingDuration="6.00" haltingDurationSum="10.00" meanIntervalHaltingDuration="5.00" maxIntervalHaltingDuration="6.00" intervalHaltingDurationSum="10.00" startedHalts="4.00" meanVehicleNumber="0.03" maxVehicleNumber="2" />
   <interval begin="0.00" end="3600.00" id="27_16" sampledSeconds="778.07" nVehEntered="346" nVehLeft="346" nVehSeen="346" meanSpeed="10.73" meanTimeLoss="0.47" meanOccupancy="4.20" maxOccupancy="60.00" meanMaxJamLengthInVehicles="0.00" meanMaxJamLengthInMeters="0.00" maxJamLengthInVehicles="0" maxJamLengthInMeters="0.00" jamLengthInVehiclesSum="0" jamLengthInMetersSum="0.00" meanHaltingDuration="0.00" maxHaltingDuration="0.00" haltingDurationSum="0.00" meanIntervalHaltingDuration="0.00" maxIntervalHaltingDuration="0.00" intervalHaltingDurationSum="0.00" startedHalts="0.00" meanVehicleNumber="0.31" maxVehicleNumber="3" />
   <interval begin="0.00" end="3600.00" id="27_17" sampledSeconds="736.88" nVehEntered="313" nVehLeft="313" nVehSeen="313" meanSpeed="10.20" meanTimeLoss="0.66" meanOccupancy="3.99" maxOccupancy="63.93" meanMaxJamLengthInVehicles="0.00" meanMaxJamLengthInMeters="0.00" maxJamLengthInVehicles="1" maxJamLengthInMeters="2.76" jamLengthInVehiclesSum="1" jamLengthInMetersSum="2.76" meanHaltingDuration="1.20" maxHaltingDuration="2.00" haltingDurationSum="6.00" meanIntervalHaltingDuration="1.20" maxIntervalHaltingDuration="2.00" intervalHaltingDurationSum="6.00" startedHalts="6.00" meanVehicleNumber="0.29" maxVehicleNumber="3" />
   <interval begin="0.00" end="3600.00" id="27_18" sampledSeconds="430.63" nVehEntered="201" nVehLeft="201" nVehSeen="201" meanSpeed="11.43" meanTimeLoss="0.36" meanOccupancy="2.30" maxOccupancy="45.78" meanMaxJamLengthInVehicles="0.00" meanMaxJamLengthInMeters="0.00" maxJamLengthInVehicles="0" maxJamLengthInMeters="0.00" jamLengthInVehiclesSum="0" jamLengthInMetersSum="0.00" meanHaltingDuration="0.00" maxHaltingDuration="0.00" haltingDurationSum="0.00" meanIntervalHaltingDuration="0.00" maxIntervalHaltingDuration="0.00" intervalHaltingDurationSum="0.00" startedHalts="0.00" meanVehicleNumber="0.17" maxVehicleNumber="2" />
   <interval begin="0.00" end="3600.00" id="27_19" sampledSeconds="972.22" nVehEntered="419" nVehLeft="418" nVehSeen="419" meanSpeed="10.87" meanTimeLoss="0.48" meanOccupancy="5.53" maxOccupancy="60.00" meanMaxJamLengthInVehicles="0.00" meanMaxJamLengthInMeters="0.00" maxJamLengthInVehicles="0" maxJamLengthInMeters="0.00" jamLengthInVehiclesSum="0" jamLengthInMetersSum="0.00" meanHaltingDuration="0.00" maxHaltingDuration="0.00" haltingDurationSum="0.00" meanIntervalHaltingDuration="0.00" maxIntervalHaltingDuration="0.00" intervalHaltingDurationSum="0.00" startedHalts="0.00" meanVehicleNumber="0.38" maxVehicleNumber="2" />
   <interval begin="0.00" end="3600.00" id="27_20" sampledSeconds="16757.25" nVehEntered="697" nVehLeft="696" nVehSeen="697" meanSpeed="2.71" meanTimeLoss="18.98" meanOccupancy="28.32" maxOccupancy="77.34" meanMaxJamLengthInVehicles="2.91" meanMaxJamLengthInMeters="17.55" maxJamLengthInVehicles="13" maxJamLengthInMeters="77.59" jamLengthInVehiclesSum="10500" jamLengthInMetersSum="63314.45" meanHaltingDuration="25.93" maxHaltingDuration="70.00" haltingDurationSum="10788.00" meanIntervalHaltingDuration="25.93" maxIntervalHaltingDuration="70.00" intervalHaltingDurationSum="10788.00" startedHalts="466.00" meanVehicleNumber="4.81" maxVehicleNumber="13" />
   <interval begin="0.00" end="3600.00" id="27_21" sampledSeconds="10926.72" nVehEntered="798" nVehLeft="797" nVehSeen="798" meanSpeed="4.10" meanTimeLoss="9.68" meanOccupancy="18.08" maxOccupancy="59.85" meanMaxJamLengthInVehicles="1.65" meanMaxJamLengthInMeters="9.64" maxJamLengthInVehicles="8" maxJamLengthInMeters="49.73" jamLengthInVehiclesSum="5957" jamLengthInMetersSum="34699.63" meanHaltingDuration="23.21" maxHaltingDuration="47.00" haltingDurationSum="6105.00" meanIntervalHaltingDuration="23.21" maxIntervalHaltingDuration="47.00" intervalHaltingDurationSum="6105.00" startedHalts="337.00" meanVehicleNumber="3.18" maxVehicleNumber="10" />
   <interval begin="0.00" end="3600.00" id="27_22" sampledSeconds="6979.61" nVehEntered="309" nVehLeft="309" nVehSeen="309" meanSpeed="1.81" meanTimeLoss="19.68" meanOccupancy="11.37" maxOccupancy="54.07" meanMaxJamLengthInVehicles="1.36" meanMaxJamLengthInMeters="7.90" maxJamLengthInVehicles="8" maxJamLengthInMeters="48.28" jamLengthInVehiclesSum="4913" jamLengthInMetersSum="28428.60" meanHaltingDuration="22.00" maxHaltingDuration="47.00" haltingDurationSum="5147.00" meanIntervalHaltingDuration="22.00" maxIntervalHaltingDuration="47.00" intervalHaltingDurationSum="5147.00" startedHalts="234.00" meanVehicleNumber="1.98" maxVehicleNumber="9" />
   <interval begin="0.00" end="3600.00" id="27_23" sampledSeconds="0.00" nVehEntered="0" nVehLeft="0" nVehSeen="0" meanSpeed="-1.00" meanTimeLoss="-1.00" meanOccupancy="0.00" maxOccupancy="0.00" meanMaxJamLengthInVehicles="0.00" meanMaxJamLengthInMeters="0.00" maxJamLengthInVehicles="0" maxJamLengthInMeters="0.00" jamLengthInVehiclesSum="0" jamLengthInMetersSum="0.00" meanHaltingDuration="0.00" maxHaltingDuration="0.00" haltingDurationSum="0.00" meanIntervalHaltingDuration="0.00" maxIntervalHaltingDuration="0.00" intervalHaltingDurationSum="0.00" startedHalts="0.00" meanVehicleNumber="0.00" maxVehicleNumber="0" />
   <interval begin="0.00" end="3600.00" id="27_24" sampledSeconds="553.90" nVehEntered="24" nVehLeft="23" nVehSeen="24" meanSpeed="0.95" meanTimeLoss="21.50" meanOccupancy="14.50" maxOccupancy="100.00" meanMaxJamLengthInVehicles="0.13" meanMaxJamLengthInMeters="1.31" maxJamLengthInVehicles="1" maxJamLengthInMeters="10.38" jamLengthInVehiclesSum="453" jamLengthInMetersSum="4700.72" meanHaltingDuration="33.36" maxHaltingDuration="65.00" haltingDurationSum="467.00" meanIntervalHaltingDuration="33.36" maxIntervalHaltingDuration="65.00" intervalHaltingDurationSum="467.00" startedHalts="14.00" meanVehicleNumber="0.16" maxVehicleNumber="2" />
   <interval begin="0.00" end="3600.00" id="27_25" sampledSeconds="0.00" nVehEntered="0" nVehLeft="0" nVehSeen="0" meanSpeed="-1.00" meanTimeLoss="-1.00" meanOccupancy="0.00" maxOccupancy="0.00" meanMaxJamLengthInVehicles="0.00" meanMaxJamLengthInMeters="0.00" maxJamLengthInVehicles="0" maxJamLengthInMeters="0.00" jamLengthInVehiclesSum="0" jamLengthInMetersSum="0.00" meanHaltingDuration="0.00" maxHaltingDuration="0.00" haltingDurationSum="0.00" meanIntervalHaltingDuration="0.00" maxIntervalHaltingDuration="0.00" intervalHaltingDurationSum="0.00" startedHalts="0.00" meanVehicleNumber="0.00" maxVehicleNumber="0" />
   <interval begin="0.00" end="3600.00" id="27_26" sampledSeconds="1195.94" nVehEntered="24" nVehLeft="24" nVehSeen="24" meanSpeed="3.37" meanTimeLoss="37.72" meanOccupancy="2.43" maxOccupancy="23.05" meanMaxJamLengthInVehicles="0.18" meanMaxJamLengthInMeters="2.32" maxJamLengthInVehicles="3" maxJamLengthInMeters="42.05" jamLengthInVehiclesSum="664" jamLengthInMetersSum="8334.12" meanHaltingDuration="19.44" maxHaltingDuration="23.00" haltingDurationSum="700.00" meanIntervalHaltingDuration="19.44" maxIntervalHaltingDuration="23.00" intervalHaltingDurationSum="700.00" startedHalts="36.00" meanVehicleNumber="0.34" maxVehicleNumber="3" />
   <interval begin="0.00" end="3600.00" id="27_27" sampledSeconds="0.00" nVehEntered="0" nVehLeft="0" nVehSeen="0" meanSpeed="-1.00" meanTimeLoss="-1.00" meanOccupancy="0.00" maxOccupancy="0.00" meanMaxJamLengthInVehicles="0.00" meanMaxJamLengthInMeters="0.00" maxJamLengthInVehicles="0" maxJamLengthInMeters="0.00" jamLengthInVehiclesSum="0" jamLengthInMetersSum="0.00" meanHaltingDuration="0.00" maxHaltingDuration="0.00" haltingDurationSum="0.00" meanIntervalHaltingDuration="0.00" maxIntervalHaltingDuration="0.00" intervalHaltingDurationSum="0.00" startedHalts="0.00" meanVehicleNumber="0.00" maxVehicleNumber="0" />
   <interval begin="0.00" end="3600.00" id="27_28" sampledSeconds="9054.32" nVehEntered="429" nVehLeft="429" nVehSeen="429" meanSpeed="2.84" meanTimeLoss="16.69" meanOccupancy="20.76" maxOccupancy="78.97" meanMaxJamLengthInVehicles="1.62" meanMaxJamLengthInMeters="9.49" maxJamLengthInVehicles="10" maxJamLengthInMeters="57.10" jamLengthInVehiclesSum="5841" jamLengthInMetersSum="34167.17" meanHaltingDuration="28.25" maxHaltingDuration="48.00" haltingDurationSum="6046.00" meanIntervalHaltingDuration="28.25" maxIntervalHaltingDuration="48.00" intervalHaltingDurationSum="6046.00" startedHalts="218.00" meanVehicleNumber="2.63" maxVehicleNumber="10" />